Program Version,EnergyPlus, Version 23.2.0-7636e6b3e9, YMD=2024.05.31 16:36
1,5,Environment Title[],Latitude[deg],Longitude[deg],Time Zone[],Elevation[m]
2,8,Day of Simulation[],Month[],Day of Month[],DST Indicator[1=yes 0=no],Hour[],StartMinute[],EndMinute[],DayType
3,5,Cumulative Day of Simulation[],Month[],Day of Month[],DST Indicator[1=yes 0=no],DayType  ! When Daily Report Variables Requested
4,2,Cumulative Days of Simulation[],Month[]  ! When Monthly Report Variables Requested
5,1,Cumulative Days of Simulation[] ! When Run Period Report Variables Requested
6,1,Calendar Year of Simulation[] ! When Annual Report Variables Requested
7,9,Environment,Site Outdoor Air Drybulb Temperature [C] !Monthly [Value,Min,Day,Hour,Minute,Max,Day,Hour,Minute]
276,1,THERMAL ZONE 1,Zone Air Temperature [C] !Hourly
277,1,THERMAL ZONE 1,Zone Air Relative Humidity [%] !Hourly
46,1,Electricity:Facility [J] !TimeStep
End of Data Dictionary
1,SINGAPORE ANN CLG .4% CONDNS DB=>MWB,   1.37, 103.98,   8.00,  16.00
2,1, 6,21, 0, 1, 0.00,10.00,SummerDesignDay
46,107392.939678971
2,1, 6,21, 0, 1,10.00,20.00,SummerDesignDay
46,103432.6521728865
2,1, 6,21, 0, 1,20.00,30.00,SummerDesignDay
46,99675.44387037166
2,1, 6,21, 0, 1,30.00,40.00,SummerDesignDay
46,96100.84203743006
2,1, 6,21, 0, 1,40.00,50.00,SummerDesignDay
46,92691.01111381716
2,1, 6,21, 0, 1,50.00,60.00,SummerDesignDay
46,89429.88890492139
2,1, 6,21, 0, 1, 0.00,60.00,SummerDesignDay
276,25.000103724027536
277,65.8940108868916
2,1, 6,21, 0, 2, 0.00,10.00,SummerDesignDay
46,86452.25539631867
2,1, 6,21, 0, 2,10.00,20.00,SummerDesignDay
46,83641.39019727844
2,1, 6,21, 0, 2,20.00,30.00,SummerDesignDay
46,80985.57838834866
2,1, 6,21, 0, 2,30.00,40.00,SummerDesignDay
46,78469.11580729752
2,1, 6,21, 0, 2,40.00,50.00,SummerDesignDay
46,76078.13160045171
2,1, 6,21, 0, 2,50.00,60.00,SummerDesignDay
46,73800.28910890952
2,1, 6,21, 0, 2, 0.00,60.00,SummerDesignDay
276,25.000089254836706
277,65.43238097403353
2,1, 6,21, 0, 3, 0.00,10.00,SummerDesignDay
46,71688.08486858348
2,1, 6,21, 0, 3,10.00,20.00,SummerDesignDay
46,69690.39462035842
2,1, 6,21, 0, 3,20.00,30.00,SummerDesignDay
46,67798.20739577866
2,1, 6,21, 0, 3,30.00,40.00,SummerDesignDay
46,66001.10252390997
2,1, 6,21, 0, 3,40.00,50.00,SummerDesignDay
46,64289.68810636785
2,1, 6,21, 0, 3,50.00,60.00,SummerDesignDay
46,62655.74404475436
2,1, 6,21, 0, 3, 0.00,60.00,SummerDesignDay
276,25.000078060008182
277,65.0949013315565
2,1, 6,21, 0, 4, 0.00,10.00,SummerDesignDay
46,61091.773924953275
2,1, 6,21, 0, 4,10.00,20.00,SummerDesignDay
46,59591.12803448357
2,1, 6,21, 0, 4,20.00,30.00,SummerDesignDay
46,58158.00461959374
2,1, 6,21, 0, 4,30.00,40.00,SummerDesignDay
46,56778.889969674405
2,1, 6,21, 0, 4,40.00,50.00,SummerDesignDay
46,55445.425341427916
2,1, 6,21, 0, 4,50.00,60.00,SummerDesignDay
46,54155.51418965231
2,1, 6,21, 0, 4, 0.00,60.00,SummerDesignDay
276,25.000069150671695
277,64.82661401452462
2,1, 6,21, 0, 5, 0.00,10.00,SummerDesignDay
46,52949.98021520849
2,1, 6,21, 0, 5,10.00,20.00,SummerDesignDay
46,51801.40169852496
2,1, 6,21, 0, 5,20.00,30.00,SummerDesignDay
46,50705.556396280204
2,1, 6,21, 0, 5,30.00,40.00,SummerDesignDay
46,49657.73310025368
2,1, 6,21, 0, 5,40.00,50.00,SummerDesignDay
46,48653.45469251186
2,1, 6,21, 0, 5,50.00,60.00,SummerDesignDay
46,47688.79656551303
2,1, 6,21, 0, 5, 0.00,60.00,SummerDesignDay
276,25.000061951706584
277,64.59226336469844
2,1, 6,21, 0, 6, 0.00,10.00,SummerDesignDay
46,46940.39236547399
2,1, 6,21, 0, 6,10.00,20.00,SummerDesignDay
46,46309.175426847134
2,1, 6,21, 0, 6,20.00,30.00,SummerDesignDay
46,45790.72531730674
2,1, 6,21, 0, 6,30.00,40.00,SummerDesignDay
46,45375.59568116227
2,1, 6,21, 0, 6,40.00,50.00,SummerDesignDay
46,45054.50810220971
2,1, 6,21, 0, 6,50.00,60.00,SummerDesignDay
46,44819.1269651608
2,1, 6,21, 0, 6, 0.00,60.00,SummerDesignDay
276,25.000057717913986
277,64.45919821843711
2,1, 6,21, 0, 7, 0.00,10.00,SummerDesignDay
46,44879.418819312195
2,1, 6,21, 0, 7,10.00,20.00,SummerDesignDay
46,45123.02486398167
2,1, 6,21, 0, 7,20.00,30.00,SummerDesignDay
46,45547.41888351022
2,1, 6,21, 0, 7,30.00,40.00,SummerDesignDay
46,46140.571272840905
2,1, 6,21, 0, 7,40.00,50.00,SummerDesignDay
46,46891.62192710723
2,1, 6,21, 0, 7,50.00,60.00,SummerDesignDay
46,47790.926234668215
2,1, 6,21, 0, 7, 0.00,60.00,SummerDesignDay
276,25.000059088169504
277,64.57484479840264
2,1, 6,21, 0, 8, 0.00,10.00,SummerDesignDay
46,51215.58176617081
2,1, 6,21, 0, 8,10.00,20.00,SummerDesignDay
46,59105.82479108761
2,1, 6,21, 0, 8,20.00,30.00,SummerDesignDay
46,72746.2175677636
2,1, 6,21, 0, 8,30.00,40.00,SummerDesignDay
46,92959.16555930515
2,1, 6,21, 0, 8,40.00,50.00,SummerDesignDay
46,119288.43060883696
2,1, 6,21, 0, 8,50.00,60.00,SummerDesignDay
46,150713.53401387826
2,1, 6,21, 0, 8, 0.00,60.00,SummerDesignDay
276,25.000097850700456
277,65.30211827334158
2,1, 6,21, 0, 9, 0.00,10.00,SummerDesignDay
46,186685.88361496746
2,1, 6,21, 0, 9,10.00,20.00,SummerDesignDay
46,226362.54970604953
2,1, 6,21, 0, 9,20.00,30.00,SummerDesignDay
46,269048.1492719797
2,1, 6,21, 0, 9,30.00,40.00,SummerDesignDay
46,314923.02163204894
2,1, 6,21, 0, 9,40.00,50.00,SummerDesignDay
46,362980.33491450263
2,1, 6,21, 0, 9,50.00,60.00,SummerDesignDay
46,412236.6709695378
2,1, 6,21, 0, 9, 0.00,60.00,SummerDesignDay
276,25.000155249397952
277,67.33233206526917
2,1, 6,21, 0,10, 0.00,10.00,SummerDesignDay
46,461421.7611981988
2,1, 6,21, 0,10,10.00,20.00,SummerDesignDay
46,510573.1843700101
2,1, 6,21, 0,10,20.00,30.00,SummerDesignDay
46,559338.115242119
2,1, 6,21, 0,10,30.00,40.00,SummerDesignDay
46,607434.6634961787
2,1, 6,21, 0,10,40.00,50.00,SummerDesignDay
46,654634.3460704018
2,1, 6,21, 0,10,50.00,60.00,SummerDesignDay
46,700755.7882648153
2,1, 6,21, 0,10, 0.00,60.00,SummerDesignDay
276,25.000079719968067
277,69.22827775800059
2,1, 6,21, 0,11, 0.00,10.00,SummerDesignDay
46,744619.9437493128
2,1, 6,21, 0,11,10.00,20.00,SummerDesignDay
46,786966.0426501794
2,1, 6,21, 0,11,20.00,30.00,SummerDesignDay
46,827558.7833453075
2,1, 6,21, 0,11,30.00,40.00,SummerDesignDay
46,839431.1790181904
2,1, 6,21, 0,11,40.00,50.00,SummerDesignDay
46,840365.5414013491
2,1, 6,21, 0,11,50.00,60.00,SummerDesignDay
46,841310.2016965991
2,1, 6,21, 0,11, 0.00,60.00,SummerDesignDay
276,25.115313377278145
277,70.26766673757801
2,1, 6,21, 0,12, 0.00,10.00,SummerDesignDay
46,841945.6691834496
2,1, 6,21, 0,12,10.00,20.00,SummerDesignDay
46,842585.672865978
2,1, 6,21, 0,12,20.00,30.00,SummerDesignDay
46,843230.1964877439
2,1, 6,21, 0,12,30.00,40.00,SummerDesignDay
46,843879.2237952153
2,1, 6,21, 0,12,40.00,50.00,SummerDesignDay
46,844532.738537772
2,1, 6,21, 0,12,50.00,60.00,SummerDesignDay
46,845190.724467703
2,1, 6,21, 0,12, 0.00,60.00,SummerDesignDay
276,25.75942137028741
277,68.7325192773415
2,1, 6,21, 0,13, 0.00,10.00,SummerDesignDay
46,845720.3215499546
2,1, 6,21, 0,13,10.00,20.00,SummerDesignDay
46,846252.7614794018
2,1, 6,21, 0,13,20.00,30.00,SummerDesignDay
46,846788.0359412403
2,1, 6,21, 0,13,30.00,40.00,SummerDesignDay
46,847326.1366218574
2,1, 6,21, 0,13,40.00,50.00,SummerDesignDay
46,847867.0552088334
2,1, 6,21, 0,13,50.00,60.00,SummerDesignDay
46,848410.7833909406
2,1, 6,21, 0,13, 0.00,60.00,SummerDesignDay
276,26.24863060073162
277,67.54464835996377
2,1, 6,21, 0,14, 0.00,10.00,SummerDesignDay
46,848752.0365597878
2,1, 6,21, 0,14,10.00,20.00,SummerDesignDay
46,849094.3819520203
2,1, 6,21, 0,14,20.00,30.00,SummerDesignDay
46,849437.8175392398
2,1, 6,21, 0,14,30.00,40.00,SummerDesignDay
46,849782.3412932287
2,1, 6,21, 0,14,40.00,50.00,SummerDesignDay
46,850127.9511859519
2,1, 6,21, 0,14,50.00,60.00,SummerDesignDay
46,850474.6451895566
2,1, 6,21, 0,14, 0.00,60.00,SummerDesignDay
276,26.531874843359134
277,66.972569450264
2,1, 6,21, 0,15, 0.00,10.00,SummerDesignDay
46,850474.6451895566
2,1, 6,21, 0,15,10.00,20.00,SummerDesignDay
46,850474.6451895566
2,1, 6,21, 0,15,20.00,30.00,SummerDesignDay
46,850474.6451895566
2,1, 6,21, 0,15,30.00,40.00,SummerDesignDay
46,850474.6451895566
2,1, 6,21, 0,15,40.00,50.00,SummerDesignDay
46,850474.6451895566
2,1, 6,21, 0,15,50.00,60.00,SummerDesignDay
46,850474.6451895566
2,1, 6,21, 0,15, 0.00,60.00,SummerDesignDay
276,26.800251541445743
277,66.11984506842087
2,1, 6,21, 0,16, 0.00,10.00,SummerDesignDay
46,850058.7424136482
2,1, 6,21, 0,16,10.00,20.00,SummerDesignDay
46,849644.4013414191
2,1, 6,21, 0,16,20.00,30.00,SummerDesignDay
46,849231.6254770942
2,1, 6,21, 0,16,30.00,40.00,SummerDesignDay
46,848820.4183252747
2,1, 6,21, 0,16,40.00,50.00,SummerDesignDay
46,848410.7833909406
2,1, 6,21, 0,16,50.00,60.00,SummerDesignDay
46,848002.724179448
2,1, 6,21, 0,16, 0.00,60.00,SummerDesignDay
276,26.927162782239275
277,65.36038433511534
2,1, 6,21, 0,17, 0.00,10.00,SummerDesignDay
46,847461.1024145583
2,1, 6,21, 0,17,10.00,20.00,SummerDesignDay
46,846922.2964781082
2,1, 6,21, 0,17,20.00,30.00,SummerDesignDay
46,846386.3146822206
2,1, 6,21, 0,17,30.00,40.00,SummerDesignDay
46,845853.1653402093
2,1, 6,21, 0,17,40.00,50.00,SummerDesignDay
46,845322.8567665807
2,1, 6,21, 0,17,50.00,60.00,SummerDesignDay
46,844795.3972770335
2,1, 6,21, 0,17, 0.00,60.00,SummerDesignDay
276,26.77548295404867
277,65.35006383627153
2,1, 6,21, 0,18, 0.00,10.00,SummerDesignDay
46,844140.0921099647
2,1, 6,21, 0,18,10.00,20.00,SummerDesignDay
46,843489.2678785479
2,1, 6,21, 0,18,20.00,30.00,SummerDesignDay
46,842842.940832239
2,1, 6,21, 0,18,30.00,40.00,SummerDesignDay
46,842201.1272234053
2,1, 6,21, 0,18,40.00,50.00,SummerDesignDay
46,841563.8433073246
2,1, 6,21, 0,18,50.00,60.00,SummerDesignDay
46,840931.105342184
2,1, 6,21, 0,18, 0.00,60.00,SummerDesignDay
276,26.25987690241641
277,66.5836742785677
2,1, 6,21, 0,19, 0.00,10.00,SummerDesignDay
46,839990.5576244344
2,1, 6,21, 0,19,10.00,20.00,SummerDesignDay
46,839060.3297779385
2,1, 6,21, 0,19,20.00,30.00,SummerDesignDay
46,838140.476710915
2,1, 6,21, 0,19,30.00,40.00,SummerDesignDay
46,832367.6517514185
2,1, 6,21, 0,19,40.00,50.00,SummerDesignDay
46,787059.6472267909
2,1, 6,21, 0,19,50.00,60.00,SummerDesignDay
46,733517.9298187245
2,1, 6,21, 0,19, 0.00,60.00,SummerDesignDay
276,25.32565654496064
277,69.22128624799011
2,1, 6,21, 0,20, 0.00,10.00,SummerDesignDay
46,670992.1338587226
2,1, 6,21, 0,20,10.00,20.00,SummerDesignDay
46,610756.5224282631
2,1, 6,21, 0,20,20.00,30.00,SummerDesignDay
46,556209.4721353366
2,1, 6,21, 0,20,30.00,40.00,SummerDesignDay
46,507699.4747341654
2,1, 6,21, 0,20,40.00,50.00,SummerDesignDay
46,464665.04722955334
2,1, 6,21, 0,20,50.00,60.00,SummerDesignDay
46,426471.04793255765
2,1, 6,21, 0,20, 0.00,60.00,SummerDesignDay
276,25.002887956525367
277,69.39535768561522
2,1, 6,21, 0,21, 0.00,10.00,SummerDesignDay
46,393096.04562386655
2,1, 6,21, 0,21,10.00,20.00,SummerDesignDay
46,363408.77498685557
2,1, 6,21, 0,21,20.00,30.00,SummerDesignDay
46,336942.01265656063
2,1, 6,21, 0,21,30.00,40.00,SummerDesignDay
46,313298.1608880569
2,1, 6,21, 0,21,40.00,50.00,SummerDesignDay
46,292103.5441517784
2,1, 6,21, 0,21,50.00,60.00,SummerDesignDay
46,273041.3438242539
2,1, 6,21, 0,21, 0.00,60.00,SummerDesignDay
276,25.000155791439408
277,68.52849302321107
2,1, 6,21, 0,22, 0.00,10.00,SummerDesignDay
46,255843.11260386236
2,1, 6,21, 0,22,10.00,20.00,SummerDesignDay
46,240275.37961377815
2,1, 6,21, 0,22,20.00,30.00,SummerDesignDay
46,226136.47348475477
2,1, 6,21, 0,22,30.00,40.00,SummerDesignDay
46,213251.45871449105
2,1, 6,21, 0,22,40.00,50.00,SummerDesignDay
46,201468.07941288443
2,1, 6,21, 0,22,50.00,60.00,SummerDesignDay
46,190654.46937386954
2,1, 6,21, 0,22, 0.00,60.00,SummerDesignDay
276,25.000158072993415
277,67.75256958377548
2,1, 6,21, 0,23, 0.00,10.00,SummerDesignDay
46,180983.64508601962
2,1, 6,21, 0,23,10.00,20.00,SummerDesignDay
46,172106.92814377166
2,1, 6,21, 0,23,20.00,30.00,SummerDesignDay
46,163937.2758413239
2,1, 6,21, 0,23,30.00,40.00,SummerDesignDay
46,156393.1390032539
2,1, 6,21, 0,23,40.00,50.00,SummerDesignDay
46,149402.74255928525
2,1, 6,21, 0,23,50.00,60.00,SummerDesignDay
46,142903.42157841547
2,1, 6,21, 0,23, 0.00,60.00,SummerDesignDay
276,25.000140800044637
277,67.0508238467661
2,1, 6,21, 0,24, 0.00,10.00,SummerDesignDay
46,136840.1766990818
2,1, 6,21, 0,24,10.00,20.00,SummerDesignDay
46,131165.12017250204
2,1, 6,21, 0,24,20.00,30.00,SummerDesignDay
46,125836.03972764018
2,1, 6,21, 0,24,30.00,40.00,SummerDesignDay
46,120815.84454802983
2,1, 6,21, 0,24,40.00,50.00,SummerDesignDay
46,116072.08375315634
2,1, 6,21, 0,24,50.00,60.00,SummerDesignDay
46,111576.10653712331
2,1, 6,21, 0,24, 0.00,60.00,SummerDesignDay
276,25.000121363632683
277,66.45364247240252
4,1, 6
7,30.250624999999996,27.700000000000003,21, 5,60,33.2,21,14,60
1,SINGAPORE ANN HTG 99.6% CONDNS DB,   1.37, 103.98,   8.00,  16.00
2,1,12,21, 0, 1, 0.00,10.00,WinterDesignDay
46,89559.94687696606
2,1,12,21, 0, 1,10.00,20.00,WinterDesignDay
46,89559.94687696557
2,1,12,21, 0, 1,20.00,30.00,WinterDesignDay
46,89559.94687696606
2,1,12,21, 0, 1,30.00,40.00,WinterDesignDay
46,89559.94687696557
2,1,12,21, 0, 1,40.00,50.00,WinterDesignDay
46,89559.94687696606
2,1,12,21, 0, 1,50.00,60.00,WinterDesignDay
46,89559.94687696557
2,1,12,21, 0, 1, 0.00,60.00,WinterDesignDay
276,20.00015286024211
277,72.99127532063802
2,1,12,21, 0, 2, 0.00,10.00,WinterDesignDay
46,89559.94687696606
2,1,12,21, 0, 2,10.00,20.00,WinterDesignDay
46,89559.94687696557
2,1,12,21, 0, 2,20.00,30.00,WinterDesignDay
46,89559.94687696606
2,1,12,21, 0, 2,30.00,40.00,WinterDesignDay
46,89559.94687696557
2,1,12,21, 0, 2,40.00,50.00,WinterDesignDay
46,89559.94687696606
2,1,12,21, 0, 2,50.00,60.00,WinterDesignDay
46,89559.94687696557
2,1,12,21, 0, 2, 0.00,60.00,WinterDesignDay
276,20.00015286024211
277,72.99127532063802
2,1,12,21, 0, 3, 0.00,10.00,WinterDesignDay
46,89559.94687696606
2,1,12,21, 0, 3,10.00,20.00,WinterDesignDay
46,89559.94687696557
2,1,12,21, 0, 3,20.00,30.00,WinterDesignDay
46,89559.94687696606
2,1,12,21, 0, 3,30.00,40.00,WinterDesignDay
46,89559.94687696557
2,1,12,21, 0, 3,40.00,50.00,WinterDesignDay
46,89559.94687696606
2,1,12,21, 0, 3,50.00,60.00,WinterDesignDay
46,89559.94687696557
2,1,12,21, 0, 3, 0.00,60.00,WinterDesignDay
276,20.00015286024211
277,72.99127532063802
2,1,12,21, 0, 4, 0.00,10.00,WinterDesignDay
46,89559.94687696606
2,1,12,21, 0, 4,10.00,20.00,WinterDesignDay
46,89559.94687696557
2,1,12,21, 0, 4,20.00,30.00,WinterDesignDay
46,89559.94687696606
2,1,12,21, 0, 4,30.00,40.00,WinterDesignDay
46,89559.94687696557
2,1,12,21, 0, 4,40.00,50.00,WinterDesignDay
46,89559.94687696606
2,1,12,21, 0, 4,50.00,60.00,WinterDesignDay
46,89559.94687696557
2,1,12,21, 0, 4, 0.00,60.00,WinterDesignDay
276,20.00015286024211
277,72.99127532063802
2,1,12,21, 0, 5, 0.00,10.00,WinterDesignDay
46,89559.94687696606
2,1,12,21, 0, 5,10.00,20.00,WinterDesignDay
46,89559.94687696557
2,1,12,21, 0, 5,20.00,30.00,WinterDesignDay
46,89559.94687696606
2,1,12,21, 0, 5,30.00,40.00,WinterDesignDay
46,89559.94687696557
2,1,12,21, 0, 5,40.00,50.00,WinterDesignDay
46,89559.94687696606
2,1,12,21, 0, 5,50.00,60.00,WinterDesignDay
46,89559.94687696557
2,1,12,21, 0, 5, 0.00,60.00,WinterDesignDay
276,20.00015286024211
277,72.99127532063802
2,1,12,21, 0, 6, 0.00,10.00,WinterDesignDay
46,89559.94687696606
2,1,12,21, 0, 6,10.00,20.00,WinterDesignDay
46,89559.94687696557
2,1,12,21, 0, 6,20.00,30.00,WinterDesignDay
46,89559.94687696606
2,1,12,21, 0, 6,30.00,40.00,WinterDesignDay
46,89559.94687696557
2,1,12,21, 0, 6,40.00,50.00,WinterDesignDay
46,89559.94687696606
2,1,12,21, 0, 6,50.00,60.00,WinterDesignDay
46,89559.94687696557
2,1,12,21, 0, 6, 0.00,60.00,WinterDesignDay
276,20.00015286024211
277,72.99127532063802
2,1,12,21, 0, 7, 0.00,10.00,WinterDesignDay
46,89559.94687696606
2,1,12,21, 0, 7,10.00,20.00,WinterDesignDay
46,89559.94687696557
2,1,12,21, 0, 7,20.00,30.00,WinterDesignDay
46,89559.94687696606
2,1,12,21, 0, 7,30.00,40.00,WinterDesignDay
46,89559.94687696557
2,1,12,21, 0, 7,40.00,50.00,WinterDesignDay
46,89559.94687696606
2,1,12,21, 0, 7,50.00,60.00,WinterDesignDay
46,89559.94687696557
2,1,12,21, 0, 7, 0.00,60.00,WinterDesignDay
276,20.00015286024211
277,72.99127532063802
2,1,12,21, 0, 8, 0.00,10.00,WinterDesignDay
46,89559.94687696606
2,1,12,21, 0, 8,10.00,20.00,WinterDesignDay
46,89559.94687696557
2,1,12,21, 0, 8,20.00,30.00,WinterDesignDay
46,89559.94687696606
2,1,12,21, 0, 8,30.00,40.00,WinterDesignDay
46,89559.94687696557
2,1,12,21, 0, 8,40.00,50.00,WinterDesignDay
46,89559.94687696606
2,1,12,21, 0, 8,50.00,60.00,WinterDesignDay
46,89559.94687696557
2,1,12,21, 0, 8, 0.00,60.00,WinterDesignDay
276,20.00015286024211
277,72.99127532063802
2,1,12,21, 0, 9, 0.00,10.00,WinterDesignDay
46,89559.94687696606
2,1,12,21, 0, 9,10.00,20.00,WinterDesignDay
46,89559.94687696557
2,1,12,21, 0, 9,20.00,30.00,WinterDesignDay
46,89559.94687696606
2,1,12,21, 0, 9,30.00,40.00,WinterDesignDay
46,89559.94687696557
2,1,12,21, 0, 9,40.00,50.00,WinterDesignDay
46,89559.94687696606
2,1,12,21, 0, 9,50.00,60.00,WinterDesignDay
46,89559.94687696557
2,1,12,21, 0, 9, 0.00,60.00,WinterDesignDay
276,20.00015286024211
277,72.99127532063802
2,1,12,21, 0,10, 0.00,10.00,WinterDesignDay
46,89559.94687696606
2,1,12,21, 0,10,10.00,20.00,WinterDesignDay
46,89559.94687696557
2,1,12,21, 0,10,20.00,30.00,WinterDesignDay
46,89559.94687696606
2,1,12,21, 0,10,30.00,40.00,WinterDesignDay
46,89559.94687696557
2,1,12,21, 0,10,40.00,50.00,WinterDesignDay
46,89559.94687696606
2,1,12,21, 0,10,50.00,60.00,WinterDesignDay
46,89559.94687696557
2,1,12,21, 0,10, 0.00,60.00,WinterDesignDay
276,20.00015286024211
277,72.99127532063802
2,1,12,21, 0,11, 0.00,10.00,WinterDesignDay
46,89559.94687696606
2,1,12,21, 0,11,10.00,20.00,WinterDesignDay
46,89559.94687696557
2,1,12,21, 0,11,20.00,30.00,WinterDesignDay
46,89559.94687696606
2,1,12,21, 0,11,30.00,40.00,WinterDesignDay
46,89559.94687696557
2,1,12,21, 0,11,40.00,50.00,WinterDesignDay
46,89559.94687696606
2,1,12,21, 0,11,50.00,60.00,WinterDesignDay
46,89559.94687696557
2,1,12,21, 0,11, 0.00,60.00,WinterDesignDay
276,20.00015286024211
277,72.99127532063802
2,1,12,21, 0,12, 0.00,10.00,WinterDesignDay
46,89559.94687696606
2,1,12,21, 0,12,10.00,20.00,WinterDesignDay
46,89559.94687696557
2,1,12,21, 0,12,20.00,30.00,WinterDesignDay
46,89559.94687696606
2,1,12,21, 0,12,30.00,40.00,WinterDesignDay
46,89559.94687696557
2,1,12,21, 0,12,40.00,50.00,WinterDesignDay
46,89559.94687696606
2,1,12,21, 0,12,50.00,60.00,WinterDesignDay
46,89559.94687696557
2,1,12,21, 0,12, 0.00,60.00,WinterDesignDay
276,20.00015286024211
277,72.99127532063802
2,1,12,21, 0,13, 0.00,10.00,WinterDesignDay
46,89559.94687696606
2,1,12,21, 0,13,10.00,20.00,WinterDesignDay
46,89559.94687696557
2,1,12,21, 0,13,20.00,30.00,WinterDesignDay
46,89559.94687696606
2,1,12,21, 0,13,30.00,40.00,WinterDesignDay
46,89559.94687696557
2,1,12,21, 0,13,40.00,50.00,WinterDesignDay
46,89559.94687696606
2,1,12,21, 0,13,50.00,60.00,WinterDesignDay
46,89559.94687696557
2,1,12,21, 0,13, 0.00,60.00,WinterDesignDay
276,20.00015286024211
277,72.99127532063802
2,1,12,21, 0,14, 0.00,10.00,WinterDesignDay
46,89559.94687696606
2,1,12,21, 0,14,10.00,20.00,WinterDesignDay
46,89559.94687696557
2,1,12,21, 0,14,20.00,30.00,WinterDesignDay
46,89559.94687696606
2,1,12,21, 0,14,30.00,40.00,WinterDesignDay
46,89559.94687696557
2,1,12,21, 0,14,40.00,50.00,WinterDesignDay
46,89559.94687696606
2,1,12,21, 0,14,50.00,60.00,WinterDesignDay
46,89559.94687696557
2,1,12,21, 0,14, 0.00,60.00,WinterDesignDay
276,20.00015286024211
277,72.99127532063802
2,1,12,21, 0,15, 0.00,10.00,WinterDesignDay
46,89559.94687696606
2,1,12,21, 0,15,10.00,20.00,WinterDesignDay
46,89559.94687696557
2,1,12,21, 0,15,20.00,30.00,WinterDesignDay
46,89559.94687696606
2,1,12,21, 0,15,30.00,40.00,WinterDesignDay
46,89559.94687696557
2,1,12,21, 0,15,40.00,50.00,WinterDesignDay
46,89559.94687696606
2,1,12,21, 0,15,50.00,60.00,WinterDesignDay
46,89559.94687696557
2,1,12,21, 0,15, 0.00,60.00,WinterDesignDay
276,20.00015286024211
277,72.99127532063802
2,1,12,21, 0,16, 0.00,10.00,WinterDesignDay
46,89559.94687696606
2,1,12,21, 0,16,10.00,20.00,WinterDesignDay
46,89559.94687696557
2,1,12,21, 0,16,20.00,30.00,WinterDesignDay
46,89559.94687696606
2,1,12,21, 0,16,30.00,40.00,WinterDesignDay
46,89559.94687696557
2,1,12,21, 0,16,40.00,50.00,WinterDesignDay
46,89559.94687696606
2,1,12,21, 0,16,50.00,60.00,WinterDesignDay
46,89559.94687696557
2,1,12,21, 0,16, 0.00,60.00,WinterDesignDay
276,20.00015286024211
277,72.99127532063802
2,1,12,21, 0,17, 0.00,10.00,WinterDesignDay
46,89559.94687696606
2,1,12,21, 0,17,10.00,20.00,WinterDesignDay
46,89559.94687696557
2,1,12,21, 0,17,20.00,30.00,WinterDesignDay
46,89559.94687696606
2,1,12,21, 0,17,30.00,40.00,WinterDesignDay
46,89559.94687696557
2,1,12,21, 0,17,40.00,50.00,WinterDesignDay
46,89559.94687696606
2,1,12,21, 0,17,50.00,60.00,WinterDesignDay
46,89559.94687696557
2,1,12,21, 0,17, 0.00,60.00,WinterDesignDay
276,20.00015286024211
277,72.99127532063802
2,1,12,21, 0,18, 0.00,10.00,WinterDesignDay
46,89559.94687696606
2,1,12,21, 0,18,10.00,20.00,WinterDesignDay
46,89559.94687696557
2,1,12,21, 0,18,20.00,30.00,WinterDesignDay
46,89559.94687696606
2,1,12,21, 0,18,30.00,40.00,WinterDesignDay
46,89559.94687696557
2,1,12,21, 0,18,40.00,50.00,WinterDesignDay
46,89559.94687696606
2,1,12,21, 0,18,50.00,60.00,WinterDesignDay
46,89559.94687696557
2,1,12,21, 0,18, 0.00,60.00,WinterDesignDay
276,20.00015286024211
277,72.99127532063802
2,1,12,21, 0,19, 0.00,10.00,WinterDesignDay
46,89559.94687696606
2,1,12,21, 0,19,10.00,20.00,WinterDesignDay
46,89559.94687696557
2,1,12,21, 0,19,20.00,30.00,WinterDesignDay
46,89559.94687696606
2,1,12,21, 0,19,30.00,40.00,WinterDesignDay
46,89559.94687696557
2,1,12,21, 0,19,40.00,50.00,WinterDesignDay
46,89559.94687696606
2,1,12,21, 0,19,50.00,60.00,WinterDesignDay
46,89559.94687696557
2,1,12,21, 0,19, 0.00,60.00,WinterDesignDay
276,20.00015286024211
277,72.99127532063802
2,1,12,21, 0,20, 0.00,10.00,WinterDesignDay
46,89559.94687696606
2,1,12,21, 0,20,10.00,20.00,WinterDesignDay
46,89559.94687696557
2,1,12,21, 0,20,20.00,30.00,WinterDesignDay
46,89559.94687696606
2,1,12,21, 0,20,30.00,40.00,WinterDesignDay
46,89559.94687696557
2,1,12,21, 0,20,40.00,50.00,WinterDesignDay
46,89559.94687696606
2,1,12,21, 0,20,50.00,60.00,WinterDesignDay
46,89559.94687696557
2,1,12,21, 0,20, 0.00,60.00,WinterDesignDay
276,20.00015286024211
277,72.99127532063802
2,1,12,21, 0,21, 0.00,10.00,WinterDesignDay
46,89559.94687696606
2,1,12,21, 0,21,10.00,20.00,WinterDesignDay
46,89559.94687696557
2,1,12,21, 0,21,20.00,30.00,WinterDesignDay
46,89559.94687696606
2,1,12,21, 0,21,30.00,40.00,WinterDesignDay
46,89559.94687696557
2,1,12,21, 0,21,40.00,50.00,WinterDesignDay
46,89559.94687696606
2,1,12,21, 0,21,50.00,60.00,WinterDesignDay
46,89559.94687696557
2,1,12,21, 0,21, 0.00,60.00,WinterDesignDay
276,20.00015286024211
277,72.99127532063802
2,1,12,21, 0,22, 0.00,10.00,WinterDesignDay
46,89559.94687696606
2,1,12,21, 0,22,10.00,20.00,WinterDesignDay
46,89559.94687696557
2,1,12,21, 0,22,20.00,30.00,WinterDesignDay
46,89559.94687696606
2,1,12,21, 0,22,30.00,40.00,WinterDesignDay
46,89559.94687696557
2,1,12,21, 0,22,40.00,50.00,WinterDesignDay
46,89559.94687696606
2,1,12,21, 0,22,50.00,60.00,WinterDesignDay
46,89559.94687696557
2,1,12,21, 0,22, 0.00,60.00,WinterDesignDay
276,20.00015286024211
277,72.99127532063802
2,1,12,21, 0,23, 0.00,10.00,WinterDesignDay
46,89559.94687696606
2,1,12,21, 0,23,10.00,20.00,WinterDesignDay
46,89559.94687696557
2,1,12,21, 0,23,20.00,30.00,WinterDesignDay
46,89559.94687696606
2,1,12,21, 0,23,30.00,40.00,WinterDesignDay
46,89559.94687696557
2,1,12,21, 0,23,40.00,50.00,WinterDesignDay
46,89559.94687696606
2,1,12,21, 0,23,50.00,60.00,WinterDesignDay
46,89559.94687696557
2,1,12,21, 0,23, 0.00,60.00,WinterDesignDay
276,20.00015286024211
277,72.99127532063802
2,1,12,21, 0,24, 0.00,10.00,WinterDesignDay
46,89559.94687696606
2,1,12,21, 0,24,10.00,20.00,WinterDesignDay
46,89559.94687696557
2,1,12,21, 0,24,20.00,30.00,WinterDesignDay
46,89559.94687696606
2,1,12,21, 0,24,30.00,40.00,WinterDesignDay
46,89559.94687696557
2,1,12,21, 0,24,40.00,50.00,WinterDesignDay
46,89559.94687696606
2,1,12,21, 0,24,50.00,60.00,WinterDesignDay
46,89559.94687696557
2,1,12,21, 0,24, 0.00,60.00,WinterDesignDay
276,20.00015286024211
277,72.99127532063802
4,1,12
7,23.0,23.0,21, 1,10,23.0,21, 1,10
1,RUN PERIOD 1,   1.37, 103.98,   8.00,  16.00
2,1, 1, 1, 0, 1, 0.00,10.00,Sunday
46,0.0
2,1, 1, 1, 0, 1,10.00,20.00,Sunday
46,0.0
2,1, 1, 1, 0, 1,20.00,30.00,Sunday
46,0.0
2,1, 1, 1, 0, 1,30.00,40.00,Sunday
46,0.0
2,1, 1, 1, 0, 1,40.00,50.00,Sunday
46,0.0
2,1, 1, 1, 0, 1,50.00,60.00,Sunday
46,0.0
2,1, 1, 1, 0, 1, 0.00,60.00,Sunday
276,25.815027073681822
277,82.86120335134798
2,1, 1, 1, 0, 2, 0.00,10.00,Sunday
46,0.0
2,1, 1, 1, 0, 2,10.00,20.00,Sunday
46,0.0
2,1, 1, 1, 0, 2,20.00,30.00,Sunday
46,0.0
2,1, 1, 1, 0, 2,30.00,40.00,Sunday
46,0.0
2,1, 1, 1, 0, 2,40.00,50.00,Sunday
46,0.0
2,1, 1, 1, 0, 2,50.00,60.00,Sunday
46,0.0
2,1, 1, 1, 0, 2, 0.00,60.00,Sunday
276,25.22550565082179
277,85.7756144286954
2,1, 1, 1, 0, 3, 0.00,10.00,Sunday
46,0.0
2,1, 1, 1, 0, 3,10.00,20.00,Sunday
46,0.0
2,1, 1, 1, 0, 3,20.00,30.00,Sunday
46,0.0
2,1, 1, 1, 0, 3,30.00,40.00,Sunday
46,0.0
2,1, 1, 1, 0, 3,40.00,50.00,Sunday
46,0.0
2,1, 1, 1, 0, 3,50.00,60.00,Sunday
46,0.0
2,1, 1, 1, 0, 3, 0.00,60.00,Sunday
276,24.760069136356403
277,88.13680104054914
2,1, 1, 1, 0, 4, 0.00,10.00,Sunday
46,0.0
2,1, 1, 1, 0, 4,10.00,20.00,Sunday
46,0.0
2,1, 1, 1, 0, 4,20.00,30.00,Sunday
46,0.0
2,1, 1, 1, 0, 4,30.00,40.00,Sunday
46,0.0
2,1, 1, 1, 0, 4,40.00,50.00,Sunday
46,0.0
2,1, 1, 1, 0, 4,50.00,60.00,Sunday
46,0.0
2,1, 1, 1, 0, 4, 0.00,60.00,Sunday
276,24.33756631629306
277,90.3553814263713
2,1, 1, 1, 0, 5, 0.00,10.00,Sunday
46,0.0
2,1, 1, 1, 0, 5,10.00,20.00,Sunday
46,0.0
2,1, 1, 1, 0, 5,20.00,30.00,Sunday
46,0.0
2,1, 1, 1, 0, 5,30.00,40.00,Sunday
46,0.0
2,1, 1, 1, 0, 5,40.00,50.00,Sunday
46,0.0
2,1, 1, 1, 0, 5,50.00,60.00,Sunday
46,0.0
2,1, 1, 1, 0, 5, 0.00,60.00,Sunday
276,23.923170897130348
277,92.63054291505732
2,1, 1, 1, 0, 6, 0.00,10.00,Sunday
46,0.0
2,1, 1, 1, 0, 6,10.00,20.00,Sunday
46,0.0
2,1, 1, 1, 0, 6,20.00,30.00,Sunday
46,0.0
2,1, 1, 1, 0, 6,30.00,40.00,Sunday
46,0.0
2,1, 1, 1, 0, 6,40.00,50.00,Sunday
46,0.0
2,1, 1, 1, 0, 6,50.00,60.00,Sunday
46,0.0
2,1, 1, 1, 0, 6, 0.00,60.00,Sunday
276,23.516055251096606
277,94.92848527961507
2,1, 1, 1, 0, 7, 0.00,10.00,Sunday
46,0.0
2,1, 1, 1, 0, 7,10.00,20.00,Sunday
46,0.0
2,1, 1, 1, 0, 7,20.00,30.00,Sunday
46,0.0
2,1, 1, 1, 0, 7,30.00,40.00,Sunday
46,0.0
2,1, 1, 1, 0, 7,40.00,50.00,Sunday
46,0.0
2,1, 1, 1, 0, 7,50.00,60.00,Sunday
46,0.0
2,1, 1, 1, 0, 7, 0.00,60.00,Sunday
276,23.159350566193392
277,96.99428137986224
2,1, 1, 1, 0, 8, 0.00,10.00,Sunday
46,0.0
2,1, 1, 1, 0, 8,10.00,20.00,Sunday
46,0.0
2,1, 1, 1, 0, 8,20.00,30.00,Sunday
46,0.0
2,1, 1, 1, 0, 8,30.00,40.00,Sunday
46,0.0
2,1, 1, 1, 0, 8,40.00,50.00,Sunday
46,0.0
2,1, 1, 1, 0, 8,50.00,60.00,Sunday
46,0.0
2,1, 1, 1, 0, 8, 0.00,60.00,Sunday
276,23.011474063568485
277,97.921617139427
2,1, 1, 1, 0, 9, 0.00,10.00,Sunday
46,0.0
2,1, 1, 1, 0, 9,10.00,20.00,Sunday
46,0.0
2,1, 1, 1, 0, 9,20.00,30.00,Sunday
46,0.0
2,1, 1, 1, 0, 9,30.00,40.00,Sunday
46,0.0
2,1, 1, 1, 0, 9,40.00,50.00,Sunday
46,0.0
2,1, 1, 1, 0, 9,50.00,60.00,Sunday
46,0.0
2,1, 1, 1, 0, 9, 0.00,60.00,Sunday
276,24.110971695853156
277,91.74669866187025
2,1, 1, 1, 0,10, 0.00,10.00,Sunday
46,0.0
2,1, 1, 1, 0,10,10.00,20.00,Sunday
46,0.0
2,1, 1, 1, 0,10,20.00,30.00,Sunday
46,0.0
2,1, 1, 1, 0,10,30.00,40.00,Sunday
46,0.0
2,1, 1, 1, 0,10,40.00,50.00,Sunday
46,0.0
2,1, 1, 1, 0,10,50.00,60.00,Sunday
46,0.0
2,1, 1, 1, 0,10, 0.00,60.00,Sunday
276,26.727708882876954
277,78.63601593755318
2,1, 1, 1, 0,11, 0.00,10.00,Sunday
46,0.0
2,1, 1, 1, 0,11,10.00,20.00,Sunday
46,0.0
2,1, 1, 1, 0,11,20.00,30.00,Sunday
46,0.0
2,1, 1, 1, 0,11,30.00,40.00,Sunday
46,0.0
2,1, 1, 1, 0,11,40.00,50.00,Sunday
46,0.0
2,1, 1, 1, 0,11,50.00,60.00,Sunday
46,0.0
2,1, 1, 1, 0,11, 0.00,60.00,Sunday
276,29.68717788592198
277,66.21153687048376
2,1, 1, 1, 0,12, 0.00,10.00,Sunday
46,0.0
2,1, 1, 1, 0,12,10.00,20.00,Sunday
46,0.0
2,1, 1, 1, 0,12,20.00,30.00,Sunday
46,0.0
2,1, 1, 1, 0,12,30.00,40.00,Sunday
46,0.0
2,1, 1, 1, 0,12,40.00,50.00,Sunday
46,0.0
2,1, 1, 1, 0,12,50.00,60.00,Sunday
46,0.0
2,1, 1, 1, 0,12, 0.00,60.00,Sunday
276,32.37854162788959
277,56.78432995270766
2,1, 1, 1, 0,13, 0.00,10.00,Sunday
46,0.0
2,1, 1, 1, 0,13,10.00,20.00,Sunday
46,0.0
2,1, 1, 1, 0,13,20.00,30.00,Sunday
46,0.0
2,1, 1, 1, 0,13,30.00,40.00,Sunday
46,0.0
2,1, 1, 1, 0,13,40.00,50.00,Sunday
46,0.0
2,1, 1, 1, 0,13,50.00,60.00,Sunday
46,0.0
2,1, 1, 1, 0,13, 0.00,60.00,Sunday
276,34.84709730665059
277,49.43093764180535
2,1, 1, 1, 0,14, 0.00,10.00,Sunday
46,0.0
2,1, 1, 1, 0,14,10.00,20.00,Sunday
46,0.0
2,1, 1, 1, 0,14,20.00,30.00,Sunday
46,0.0
2,1, 1, 1, 0,14,30.00,40.00,Sunday
46,0.0
2,1, 1, 1, 0,14,40.00,50.00,Sunday
46,0.0
2,1, 1, 1, 0,14,50.00,60.00,Sunday
46,0.0
2,1, 1, 1, 0,14, 0.00,60.00,Sunday
276,37.07935356639273
277,43.70116145823821
2,1, 1, 1, 0,15, 0.00,10.00,Sunday
46,0.0
2,1, 1, 1, 0,15,10.00,20.00,Sunday
46,0.0
2,1, 1, 1, 0,15,20.00,30.00,Sunday
46,0.0
2,1, 1, 1, 0,15,30.00,40.00,Sunday
46,0.0
2,1, 1, 1, 0,15,40.00,50.00,Sunday
46,0.0
2,1, 1, 1, 0,15,50.00,60.00,Sunday
46,0.0
2,1, 1, 1, 0,15, 0.00,60.00,Sunday
276,38.84192238798059
277,39.68748378115767
2,1, 1, 1, 0,16, 0.00,10.00,Sunday
46,0.0
2,1, 1, 1, 0,16,10.00,20.00,Sunday
46,0.0
2,1, 1, 1, 0,16,20.00,30.00,Sunday
46,0.0
2,1, 1, 1, 0,16,30.00,40.00,Sunday
46,0.0
2,1, 1, 1, 0,16,40.00,50.00,Sunday
46,0.0
2,1, 1, 1, 0,16,50.00,60.00,Sunday
46,0.0
2,1, 1, 1, 0,16, 0.00,60.00,Sunday
276,39.535661879324046
277,38.21303795206219
2,1, 1, 1, 0,17, 0.00,10.00,Sunday
46,0.0
2,1, 1, 1, 0,17,10.00,20.00,Sunday
46,0.0
2,1, 1, 1, 0,17,20.00,30.00,Sunday
46,0.0
2,1, 1, 1, 0,17,30.00,40.00,Sunday
46,0.0
2,1, 1, 1, 0,17,40.00,50.00,Sunday
46,0.0
2,1, 1, 1, 0,17,50.00,60.00,Sunday
46,0.0
2,1, 1, 1, 0,17, 0.00,60.00,Sunday
276,39.023812708333665
277,39.25845925814441
2,1, 1, 1, 0,18, 0.00,10.00,Sunday
46,0.0
2,1, 1, 1, 0,18,10.00,20.00,Sunday
46,0.0
2,1, 1, 1, 0,18,20.00,30.00,Sunday
46,0.0